ITEM: TIMESTEP
0
ITEM: NUMBER OF ATOMS
4
ITEM: BOX BOUNDS pp pp pp
0.0 10.0
0.0 8.0
0.0 6.0
ITEM: ATOMS id type x y z radius
1 1 1.0 1.5 2.0 0.5
2 2 3.0 1.0 2.5 0.6
3 1 5.0 4.0 1.5 0.5
4 3 7.5 6.5 4.5 0.7

ITEM: TIMESTEP
100
ITEM: NUMBER OF ATOMS
4
ITEM: BOX BOUNDS pp pp pp
0.0 10.0
0.0 8.0
0.0 6.0
ITEM: ATOMS id type x y z radius
1 1 1.4 1.8 2.1 0.5
2 2 3.4 1.3 2.7 0.6
3 1 5.3 4.3 1.8 0.5
4 3 7.1 6.1 4.1 0.7
